/*--------------------------------*- C++ -*----------------------------------*\
  =========                 |
  \\      /  F ield         | OpenFOAM: The Open Source CFD Toolbox
   \\    /   O peration     | Website:  https://openfoam.org
    \\  /    A nd           | Version:  8
     \\/     M anipulation  |
\*---------------------------------------------------------------------------*/
FoamFile
{
    version     2.0;
    format      ascii;
    class       Cloud<passiveParticle>;
    location    "0.05/lagrangian/kinematicCloud";
    object      positions;
}
// * * * * * * * * * * * * * * * * * * * * * * * * * * * * * * * * * * * * * //

3300
(
(0.423742 0.121463 0.304258 0.150538) 380 762 2
(0.666667 0.150538 0.0234385 0.159357) 400 800 2
(0.149171 0.258748 0.441544 0.150538) 400 801 2
(0.666667 0.150538 0.160724 0.0220719) 420 839 2
(0.125399 0.270634 0.150538 0.453429) 440 840 2
(0.666667 0.0353243 0.115213 0.182796) 440 878 1
(0.39997 0.133348 0.150538 0.316144) 460 879 2
(0.462745 0.101961 0.284757 0.150538) 460 918 2
(0.666667 0.150538 0.00393693 0.178859) 480 956 2
(0.188174 0.239246 0.422042 0.150538) 480 957 2
(0.666667 0.150538 0.141222 0.0415735) 500 995 2
(0.0863963 0.290135 0.150538 0.472931) 520 996 2
(0.666667 0.0548259 0.0957117 0.182796) 520 1034 1
(0.360967 0.15285 0.150538 0.335646) 540 1035 2
(0.501748 0.0824594 0.265255 0.150538) 540 1074 2
(0.635537 0.0155647 0.150538 0.19836) 560 1074 2
(0.227177 0.219745 0.40254 0.150538) 560 1113 2
(0.666667 0.150538 0.121721 0.0610751) 580 1151 2
(0.0473931 0.309637 0.150538 0.492432) 600 1152 2
(0.666667 0.0743275 0.0762101 0.182796) 600 1190 1
(0.321964 0.172352 0.150538 0.355147) 620 1191 2
(0.540751 0.0629578 0.245753 0.150538) 620 1230 2
(0.596534 0.0350663 0.150538 0.217862) 640 1230 2
(0.266181 0.200243 0.383039 0.150538) 640 1269 2
(0.666667 0.150538 0.102219 0.0805767) 660 1307 2
(0.0083899 0.329138 0.150538 0.511934) 680 1308 2
(0.666667 0.0938291 0.0567085 0.182796) 680 1346 1
(0.28296 0.191853 0.150538 0.374649) 700 1347 2
(0.579754 0.0434562 0.226252 0.150538) 700 1386 2
(0.557531 0.0545679 0.150538 0.237364) 720 1386 2
(0.305184 0.180741 0.363537 0.150538) 720 1425 2
(0.666667 0.150538 0.0827174 0.100078) 740 1463 2
(0.0306133 0.318027 0.500822 0.150538) 740 1464 2
(0.666667 0.113331 0.037207 0.182796) 760 1502 1
(0.601118 0.183312 0.131904 0.0836661) 940 1795 1
(0.480159 0.098935 0.276049 0.144856) 940 2 1
(0.211542 0.344484 0.0336156 0.410358) 0 2 1
(0.438 0.0928335 0.172038 0.297129) 0 0 1
(0.0848335 0.441454 0.3577 0.116013) 21 59 2
(0.0793845 0.230288 0.476437 0.21389) 21 59 1
(0.0418677 0.462937 0.217656 0.277539) 41 98 2
(0.136842 0.0644018 0.447708 0.351048) 41 98 1
(0.141104 0.413319 0.0795014 0.366075) 61 137 2
(0.0251901 0.471276 0.038296 0.465238) 81 140 1
(0.123052 0.345224 0.454603 0.0771216) 81 176 1
(0.142059 0.412842 0.341654 0.103445) 101 215 2
(0.132817 0.178404 0.44972 0.239058) 101 215 1
(0.132299 0.417722 0.180316 0.269664) 121 254 2
(0.133719 0.0200688 0.44927 0.396943) 121 254 1
(0.133311 0.417215 0.028599 0.420874) 141 293 2
(0.133303 0.41722 0.441583 0.00789475) 161 332 2
(0.133346 0.269863 0.449456 0.147335) 161 332 1
(0.133333 0.417205 0.263611 0.185852) 181 371 2
(0.133333 0.0930591 0.449462 0.324145) 181 371 1
(0.133333 0.417205 0.0879263 0.361536) 201 410 2
(0.0327219 0.46751 0.0503057 0.449462) 221 413 1
(0.133333 0.330537 0.449462 0.086667) 221 449 1
(0.133333 0.417204 0.32532 0.124142) 241 488 2
(0.133333 0.151551 0.449462 0.265654) 241 488 1
(0.133333 0.417204 0.144527 0.304935) 261 527 2
(0.0846898 0.441526 0.449462 0.0243218) 261 530 1
(0.133333 0.389797 0.449462 0.0274076) 281 566 1
(0.133333 0.417204 0.382559 0.0669038) 301 605 2
(0.133333 0.208005 0.449462 0.2092) 301 605 1
(0.133333 0.417204 0.200883 0.24858) 321 644 2
(0.133333 0.031467 0.449462 0.385737) 321 644 1
(0.133333 0.417204 0.0275401 0.421922) 341 683 2
(0.133333 0.417204 0.438442 0.0110205) 361 722 2
(0.133333 0.267434 0.449462 0.14977) 361 722 1
(0.133333 0.417204 0.26594 0.183523) 381 761 2
(0.13306 0.101093 0.449599 0.316249) 381 761 1
(0.133093 0.417325 0.0981114 0.351471) 401 800 2
(0.0125223 0.47761 0.0601685 0.449699) 421 803 1
(0.133333 0.338315 0.449462 0.0788893) 421 839 1
(0.133333 0.417204 0.335057 0.114405) 441 878 2
(0.133333 0.170449 0.449462 0.246755) 441 878 1
(0.133333 0.417204 0.166428 0.283035) 461 917 2
(0.119039 0.424352 0.449462 0.00714736) 461 920 1
(0.133333 0.405409 0.449462 0.0117954) 481 956 1
(0.133333 0.417204 0.407696 0.0417659) 501 995 2
(0.133333 0.251076 0.449462 0.166128) 501 995 1
(0.133333 0.417204 0.262065 0.187398) 521 1034 2
(0.133333 0.100808 0.449462 0.316396) 521 1034 1
(0.133333 0.417204 0.114063 0.335399) 541 1073 2
(0.0329355 0.467403 0.449462 0.0501989) 541 1076 1
(0.133333 0.379125 0.449462 0.0380792) 561 1112 1
(0.133333 0.417204 0.381306 0.0681564) 581 1151 2
(0.133333 0.216457 0.449462 0.200748) 581 1151 1
(0.133333 0.417204 0.217692 0.231771) 601 1190 2
(0.133333 0.0534948 0.449462 0.363709) 601 1190 1
(0.133333 0.417204 0.0547005 0.394762) 621 1229 2
(0.0868435 0.440449 0.0232449 0.449462) 641 1232 1
(0.133333 0.307805 0.449462 0.109399) 641 1268 1
(0.133333 0.417204 0.30956 0.139902) 661 1307 2
(0.133333 0.147545 0.449462 0.269659) 661 1307 1
(0.133333 0.417204 0.153341 0.296121) 681 1346 2
(0.123904 0.421919 0.449462 0.0047145) 681 1349 1
(0.133333 0.417204 0.00266563 0.446797) 701 1385 2
(0.133333 0.417204 0.425416 0.0240467) 721 1424 2
(0.133333 0.263791 0.449462 0.153413) 721 1424 1
(0.133333 0.417204 0.267537 0.181926) 741 1463 2
(0.133333 0.107103 0.449462 0.310101) 741 1463 1
(0.133333 0.417204 0.113027 0.336435) 761 1502 2
(0.0203909 0.473676 0.449462 0.0564712) 761 1505 1
(0.133333 0.318264 0.449462 0.0989401) 781 1541 1
(0.0238989 0.471922 0.0646438 0.439536) 920 1795 1
(0.277294 0.260079 0.377482 0.0851447) 941 1833 1
(0.134346 0.416698 0.191932 0.257024) 1 5 2
(0.367253 0.190447 0.332503 0.109797) 1 0 1
(0.148168 0.409787 0.364027 0.0780186) 21 4 1
(0.714364 0.126689 0.0813995 0.0775474) 21 62 1
(0.421914 0.272914 0.206778 0.0983938) 41 62 1
(0.448196 0.259773 0.0527537 0.239277) 41 101 1
(0.689029 0.139356 0.122334 0.0492802) 61 101 1
(0.173844 0.396949 0.0586364 0.37057) 61 140 1
(0.913494 0.0271238 0.0344833 0.0248985) 81 176 2
(0.100257 0.433743 0.414768 0.051233) 101 179 1
(0.762685 0.102529 0.0553769 0.0794097) 101 218 1
(0.374601 0.296571 0.274 0.0548288) 121 218 1
(0.488167 0.239787 0.049612 0.222433) 121 257 1
(0.649421 0.159161 0.14064 0.0507783) 141 257 1
(0.212937 0.377402 0.0503597 0.359301) 141 296 1
(0.924577 0.0215827 0.0037701 0.0500706) 161 296 1
(0.061881 0.45293 0.434962 0.0502266) 181 335 1
(0.8008 0.0834708 0.0499837 0.0657451) 181 374 1
(0.336426 0.315658 0.297994 0.0499219) 201 374 1
(0.525993 0.220875 0.0499419 0.203191) 201 413 1
(0.611244 0.178249 0.160514 0.0499934) 221 413 1
(0.251474 0.358134 0.0499736 0.340419) 221 452 1
(0.885921 0.0409107 0.023534 0.0496347) 241 452 1
(0.0231825 0.47228 0.454781 0.049757) 261 491 1
(0.839355 0.0641936 0.0498685 0.0465832) 261 530 1
(0.298009 0.334867 0.317625 0.0495) 281 530 1
(0.564785 0.201478 0.0498464 0.18389) 281 569 1
(0.572617 0.197562 0.180026 0.0497947) 301 569 1
(0.290076 0.338833 0.0495017 0.32159) 301 608 1
(0.847137 0.0603023 0.0429433 0.0496171) 321 608 1
(0.0154731 0.476134 0.0495793 0.458813) 321 647 1
(0.878101 0.0448203 0.0495181 0.0275603) 341 686 1
(0.258926 0.354408 0.336952 0.0497135) 361 686 1
(0.603739 0.182001 0.0495976 0.164662) 361 725 1
(0.533723 0.217009 0.199647 0.0496204) 381 725 1
(0.328926 0.319408 0.0495275 0.302139) 381 764 1
(0.808235 0.0797535 0.0626182 0.0493933) 401 764 1
(0.0547919 0.456475 0.0495276 0.439206) 401 803 1
(0.917475 0.0251336 0.0494862 0.00790555) 421 842 1
(0.219848 0.373947 0.356695 0.0495097) 441 842 1
(0.642906 0.162418 0.0495009 0.145175) 441 881 1
(0.493964 0.236889 0.219602 0.0495447) 461 881 1
(0.36895 0.299396 0.0495168 0.282137) 461 920 1
(0.768587 0.0995773 0.0823884 0.049447) 481 920 1
(0.0943598 0.436691 0.0495919 0.419357) 481 959 1
(0.933236 0.0122521 0.0495112 0.00500099) 501 995 1
(0.179529 0.394107 0.376904 0.0494603) 521 998 1
(0.682129 0.142807 0.0495352 0.125529) 521 1037 1
(0.454524 0.256609 0.239396 0.0494713) 541 1037 1
(0.407632 0.280055 0.0494673 0.262846) 541 1076 1
(0.730457 0.118642 0.101407 0.0494938) 561 1076 1
(0.132186 0.417778 0.0495371 0.400499) 561 1115 1
(0.933333 0.0172043 0.0132639 0.0361985) 581 1151 2
(0.143986 0.411878 0.394673 0.0494625) 601 1154 1
(0.718577 0.124583 0.0494624 0.107378) 601 1193 1
(0.419622 0.27406 0.256856 0.0494624) 621 1193 1
(0.441693 0.263024 0.0494624 0.24582) 621 1232 1
(0.695682 0.13603 0.118826 0.0494624) 641 1232 1
(0.166678 0.400532 0.0494624 0.383328) 641 1271 1
(0.933333 0.0172043 0.0301265 0.0193358) 661 1307 2
(0.109375 0.429183 0.411979 0.0494624) 681 1310 1
(0.750532 0.108605 0.0494624 0.0914007) 681 1349 1
(0.391043 0.28835 0.271145 0.0494624) 701 1349 1
(0.464144 0.251799 0.0494624 0.234594) 701 1388 1
(0.683752 0.141995 0.124791 0.0494624) 721 1388 1
(0.174672 0.396535 0.0494624 0.379331) 721 1427 1
(0.933333 0.0172043 0.0302552 0.0192071) 741 1463 2
(0.116423 0.425659 0.408455 0.0494624) 761 1466 1
(0.743953 0.111894 0.0494624 0.0946902) 761 1505 1
(0.79681 0.0854661 0.03894 0.0787841) 920 1795 1
(0.389252 0.289245 0.266396 0.0551074) 941 1833 2
(0.15091 0.122608 0.440674 0.285808) 941 5 1
(0.25385 0.356946 0.373226 0.0159783) 1 3 2
(0.133101 0.0953342 0.321986 0.449579) 21 4 2
(0.316077 0.206892 0.11894 0.358091) 21 61 1
(0.350681 0.308531 0.0276785 0.31311) 41 100 2
(0.27292 0.0948219 0.252589 0.379669) 41 100 1
(0.260438 0.353652 0.207047 0.178863) 61 139 2
(0.188597 0.0475971 0.42183 0.341975) 61 140 2
(0.278039 0.344851 0.335339 0.0417705) 81 178 2
(0.0860454 0.0903969 0.350451 0.473106) 101 179 2
(0.272583 0.251867 0.0957126 0.379838) 101 217 1
(0.271174 0.348284 0.0450999 0.335442) 121 256 2
(0.266742 0.117164 0.233336 0.382758) 121 256 1
(0.269248 0.349247 0.183572 0.197933) 141 295 2
(0.226281 0.020697 0.402989 0.350033) 141 296 2
(0.267541 0.3501 0.321768 0.0605907) 161 334 2
(0.0483785 0.109887 0.349795 0.49194) 181 335 2
(0.267508 0.273402 0.0767147 0.382375) 181 373 1
(0.266802 0.35047 0.0280928 0.354636) 201 412 2
(0.267504 0.136122 0.213997 0.382377) 201 412 1
(0.267714 0.350014 0.164856 0.217416) 221 451 2
(0.26549 0.000793403 0.383384 0.350333) 221 452 2
(0.267011 0.350366 0.302284 0.0803393) 241 490 2
(0.00862562 0.129326 0.350233 0.511816) 261 491 2
(0.267341 0.29356 0.0566403 0.382458) 261 529 1
(0.266725 0.350509 0.00782307 0.374944) 281 568 2
(0.26706 0.156836 0.193505 0.382599) 281 568 1
(0.267413 0.350164 0.144407 0.238015) 301 607 2
(0.26677 0.0200384 0.330448 0.382744) 301 607 1
(0.266986 0.350378 0.281515 0.101121) 321 646 2
(0.0331328 0.116917 0.499563 0.350388) 321 647 2
(0.266601 0.314835 0.0357349 0.382828) 341 685 1
(0.24055 0.0131475 0.350448 0.395854) 361 686 2
(0.266516 0.17811 0.172503 0.382871) 361 724 1
(0.266526 0.350608 0.123697 0.259169) 381 763 2
(0.266765 0.0412806 0.309208 0.382746) 381 763 1
(0.266445 0.350649 0.260562 0.122345) 401 802 2
(0.0754427 0.0955814 0.478408 0.350568) 401 803 2
(0.266731 0.335842 0.0146637 0.382763) 421 841 1
(0.198552 0.0340972 0.350498 0.416853) 441 842 2
(0.266709 0.198949 0.151567 0.382775) 441 880 1
(0.266715 0.350514 0.102763 0.280009) 461 919 2
(0.266821 0.0619838 0.288477 0.382719) 461 919 1
(0.266691 0.350526 0.239817 0.142966) 481 958 2
(0.11655 0.0750976 0.457854 0.350498) 481 959 2
(0.266863 0.350439 0.376765 0.00593189) 501 997 2
(0.157306 0.0546831 0.350535 0.437476) 521 998 2
(0.266851 0.219463 0.130982 0.382703) 521 1036 1
(0.266854 0.350444 0.0821913 0.300511) 541 1075 2
(0.266878 0.0823646 0.268067 0.38269) 541 1075 1
(0.266904 0.350419 0.21927 0.163407) 561 1114 2
(0.157761 0.0545997 0.437249 0.350391) 561 1115 2
(0.266863 0.35044 0.356098 0.0265992) 581 1153 2
(0.115867 0.0755302 0.350407 0.458196) 601 1154 2
(0.266754 0.240354 0.110139 0.382752) 601 1192 1
(0.266829 0.350456 0.061138 0.321576) 621 1231 2
(0.266752 0.103812 0.246684 0.382753) 621 1231 1
(0.266909 0.350416 0.197671 0.185004) 641 1270 2
(0.200812 0.0331048 0.415723 0.35036) 641 1271 2
(0.266675 0.350533 0.334769 0.0480219) 661 1309 2
(0.0732112 0.0967172 0.350548 0.479523) 681 1310 2
(0.266701 0.261504 0.0890159 0.382778) 681 1348 1
(0.266668 0.350537 0.0398931 0.342902) 701 1387 2
(0.266665 0.124731 0.225807 0.382796) 701 1387 1
(0.266667 0.350538 0.176824 0.205972) 721 1426 2
(0.24333 0.0116682 0.394464 0.350538) 721 1427 2
(0.266667 0.350538 0.313925 0.0688707) 741 1465 2
(0.032948 0.116859 0.350538 0.499655) 761 1466 2
(0.266667 0.281319 0.0692191 0.382796) 761 1504 1
(0.177079 0.186178 0.427589 0.209153) 921 1794 1
(0.508362 0.22969 0.0839381 0.17801) 941 1834 2
(0.108654 0.429544 0.288934 0.172868) 942 8 2
(0.545392 0.200096 0.243433 0.0110787) 2 3 1
(0.191959 0.387892 0.172072 0.248077) 22 7 1
(0.483504 0.0946856 0.274377 0.147433) 22 61 1
(0.462443 0.25265 0.0346286 0.250279) 42 64 1
(0.400294 0.283724 0.252931 0.0630504) 42 103 1
(0.538315 0.214714 0.147582 0.09939) 62 139 2
(0.125377 0.421182 0.251804 0.201636) 62 142 1
(0.529006 0.219368 0.010139 0.241487) 82 178 2
(0.149542 0.4091 0.192301 0.249057) 102 181 1
(0.528722 0.0920945 0.251768 0.127416) 102 217 1
(0.424448 0.271647 0.0558035 0.248101) 122 220 1
(0.438239 0.264751 0.24962 0.0473889) 122 259 1
(0.530498 0.218622 0.166456 0.0844239) 142 295 2
(0.163112 0.402315 0.249499 0.185075) 142 298 1
(0.532913 0.217414 0.0289512 0.220721) 162 334 2
(0.111905 0.427919 0.209749 0.250427) 182 337 1
(0.531469 0.109625 0.250394 0.108511) 182 373 1
(0.386695 0.290523 0.0740522 0.248729) 202 376 1
(0.476065 0.245838 0.249303 0.0287934) 202 415 1
(0.531158 0.218292 0.185522 0.065028) 222 451 2
(0.201451 0.383146 0.249614 0.165789) 222 454 1
(0.533381 0.217181 0.0482904 0.201148) 242 490 2
(0.072929 0.447406 0.229701 0.249964) 262 493 1
(0.532951 0.128062 0.249653 0.0893329) 262 529 1
(0.34835 0.309696 0.0928244 0.24913) 282 532 1
(0.51414 0.226801 0.24967 0.00938916) 282 571 1
(0.531678 0.218032 0.203714 0.0465761) 302 607 2
(0.237443 0.36515 0.249305 0.148103) 302 610 1
(0.533486 0.217128 0.0648671 0.184519) 322 646 2
(0.0398147 0.463964 0.246614 0.249608) 342 649 1
(0.533311 0.143521 0.249474 0.0736942) 342 685 1
(0.317313 0.325215 0.107491 0.249981) 362 688 1
(0.533176 0.00498641 0.249541 0.212296) 362 724 1
(0.533756 0.216993 0.219032 0.0302191) 382 763 2
(0.266661 0.35054 0.249582 0.133216) 382 766 1
(0.532917 0.217412 0.0805225 0.169148) 402 802 2
(0.00870248 0.47952 0.262165 0.249613) 422 805 1
(0.533287 0.159555 0.249485 0.0576722) 422 841 1
(0.286737 0.340503 0.123239 0.249521) 442 844 1
(0.533058 0.0201883 0.2496 0.197154) 442 880 1
(0.533139 0.217302 0.233773 0.0157868) 462 919 2
(0.294445 0.336649 0.249525 0.119382) 462 922 1
(0.53337 0.217186 0.0921909 0.157253) 482 958 2
(0.00911115 0.479315 0.249452 0.262121) 482 961 1
(0.532758 0.166855 0.24975 0.050637) 502 997 1
(0.275076 0.346333 0.129192 0.249399) 522 1000 1
(0.53363 0.0253469 0.249314 0.191709) 522 1036 1
(0.533139 0.217301 0.237998 0.0115619) 542 1075 2
(0.304048 0.331847 0.249371 0.114734) 542 1078 1
(0.533018 0.217362 0.0987921 0.150828) 562 1114 2
(0.0264789 0.470632 0.24951 0.25338) 562 1117 1
(0.533423 0.176423 0.249417 0.0407361) 582 1153 1
(0.253105 0.357318 0.139877 0.2497) 602 1156 1
(0.53323 0.0357641 0.249514 0.181492) 602 1192 1
(0.533372 0.217185 0.246086 0.00335756) 622 1231 2
(0.316471 0.325636 0.24952 0.108374) 622 1234 1
(0.533355 0.217193 0.104309 0.145143) 642 1270 2
(0.0386739 0.464534 0.249395 0.247397) 642 1273 1
(0.533371 0.181421 0.249444 0.0357646) 662 1309 1
(0.247258 0.360242 0.143042 0.249457) 682 1312 1
(0.533327 0.0407114 0.249465 0.176496) 682 1348 1
(0.524882 0.22143 0.00422616 0.249462) 702 1351 1
(0.337645 0.315049 0.249462 0.0978451) 702 1390 1
(0.533333 0.217205 0.114966 0.134497) 722 1426 2
(0.0542685 0.456737 0.249462 0.239532) 722 1429 1
(0.533333 0.184432 0.249462 0.0327726) 742 1465 1
(0.245537 0.361102 0.143898 0.249462) 762 1468 1
(0.533333 0.0417339 0.249462 0.17547) 762 1504 1
(0.21769 0.375026 0.128272 0.279012) 921 1794 2
(0.0422524 0.462745 0.322218 0.172785) 942 1834 2
(0.316612 0.305995 0.357823 0.0195698) 942 8 1
(0.667125 0.150308 0.0918093 0.090757) 2 6 2
(0.0751283 0.296536 0.149771 0.478565) 22 7 2
(0.670754 0.05853 0.0899639 0.180752) 22 63 1
(0.350424 0.160296 0.148363 0.340917) 42 64 2
(0.512313 0.0771624 0.259972 0.150552) 42 103 2
(0.624949 0.020208 0.151188 0.203654) 62 103 2
(0.237757 0.215498 0.39725 0.149494) 62 142 2
(0.673565 0.147089 0.11297 0.066377) 82 180 2
(0.0367304 0.315868 0.149638 0.497764) 102 181 2
(0.667543 0.0792438 0.0708558 0.182358) 102 219 1
(0.311203 0.178331 0.149939 0.360528) 122 220 2
(0.551579 0.0578772 0.240339 0.150204) 122 259 2
(0.585612 0.0417743 0.14929 0.223323) 142 259 2
(0.277222 0.195283 0.377518 0.149977) 142 298 2
(0.66756 0.150091 0.0961976 0.0861513) 162 336 2
(0.00281496 0.332262 0.514722 0.150202) 162 337 2
(0.667511 0.0990295 0.0510862 0.182374) 182 375 1
(0.271671 0.197818 0.150218 0.380294) 202 376 2
(0.591091 0.038001 0.220583 0.150324) 202 415 2
(0.546127 0.0605055 0.150302 0.243065) 222 415 2
(0.316685 0.175263 0.357786 0.150266) 222 454 2
(0.667027 0.150358 0.0766979 0.105918) 242 492 2
(0.0426167 0.312257 0.494821 0.150305) 242 493 2
(0.667027 0.119309 0.0310489 0.182615) 262 531 1
(0.231511 0.217728 0.150388 0.400374) 282 532 2
(0.631297 0.0177926 0.200481 0.15043) 282 571 2
(0.505915 0.080539 0.150374 0.263171) 302 571 2
(0.356888 0.154959 0.337685 0.150468) 302 610 2
(0.666804 0.150469 0.0567701 0.125957) 322 648 2
(0.0824538 0.292233 0.474902 0.150411) 322 649 2
(0.666876 0.139177 0.0112562 0.182691) 342 687 1
(0.191945 0.237456 0.150442 0.420156) 362 688 2
(0.666858 0.00201752 0.148425 0.1827) 362 726 1
(0.466247 0.100293 0.150454 0.283006) 382 727 2
(0.396661 0.135091 0.317799 0.15045) 382 766 2
(0.666849 0.150446 0.0368173 0.145887) 402 804 2
(0.122425 0.272224 0.454916 0.150434) 402 805 2
(0.666773 0.150484 0.173961 0.00878137) 422 843 2
(0.152057 0.257399 0.150443 0.4401) 442 844 2
(0.666824 0.0219542 0.128505 0.182717) 442 882 1
(0.426468 0.120173 0.150464 0.302895) 462 883 2
(0.436042 0.115382 0.298108 0.150468) 462 922 2
(0.666805 0.150468 0.0173704 0.165356) 482 960 2
(0.160775 0.252996 0.435742 0.150487) 482 961 2
(0.666804 0.150469 0.15499 0.0277372) 502 999 2
(0.114258 0.276267 0.150475 0.459) 522 1000 2
(0.666745 0.0406401 0.109858 0.182757) 522 1038 1
(0.389766 0.13855 0.150438 0.321246) 542 1039 2
(0.472615 0.0970449 0.279822 0.150519) 542 1078 2
(0.664826 0.00103385 0.150424 0.183716) 562 1078 2
(0.197597 0.23461 0.417331 0.150463) 562 1117 2
(0.666776 0.150483 0.136472 0.0462691) 582 1155 2
(0.0772196 0.294827 0.150434 0.477519) 602 1156 2
(0.666738 0.0591857 0.0913161 0.18276) 602 1194 1
(0.353056 0.156872 0.150471 0.339601) 622 1195 2
(0.508938 0.0788903 0.26166 0.150512) 622 1234 2
(0.628679 0.0190539 0.150477 0.201789) 642 1234 2
(0.233097 0.216826 0.39958 0.150496) 642 1273 2
(0.666643 0.15055 0.118875 0.0639323) 662 1311 2
(0.0423452 0.31218 0.150518 0.494956) 682 1312 2
(0.666736 0.0760881 0.0744146 0.182761) 682 1350 1
(0.319453 0.173637 0.150508 0.356403) 702 1351 2
(0.542239 0.0622341 0.245009 0.150517) 702 1390 2
(0.59564 0.0355256 0.150525 0.218309) 722 1390 2
(0.266029 0.200323 0.383115 0.150533) 722 1429 2
(0.666666 0.150538 0.103872 0.0789234) 742 1467 2
(0.0147165 0.325975 0.150538 0.508771) 762 1468 2
(0.666667 0.0857336 0.0648041 0.182796) 762 1506 1
(0.338407 0.314668 0.151575 0.195351) 921 1758 1
(0.0922769 0.437733 0.316739 0.153251) 922 1799 1
(0.0965548 0.0952972 0.340296 0.467852) 942 1835 1
(0.132601 0.41757 0.0730583 0.37677) 3 6 2
(0.0231349 0.472304 0.0538639 0.450698) 23 10 1
(0.129298 0.337917 0.45148 0.0813053) 23 63 1
(0.130004 0.418869 0.350079 0.101048) 43 102 2
(0.133524 0.198519 0.449367 0.21859) 43 102 1
(0.135319 0.416211 0.212771 0.235698) 63 141 2
(0.131432 0.0623367 0.450413 0.355818) 63 141 1
(0.129987 0.418877 0.0756122 0.375523) 83 180 2
(0.0182011 0.47477 0.0567943 0.450234) 103 183 1
(0.132486 0.356063 0.449886 0.061565) 103 219 1
(0.132243 0.417749 0.369872 0.0801353) 123 258 2
(0.132669 0.218904 0.449795 0.198633) 123 258 1
(0.132689 0.417526 0.232835 0.21695) 143 297 2
(0.132229 0.0820628 0.450015 0.335694) 143 297 1
(0.132533 0.417605 0.0957455 0.354117) 163 336 2
(0.0219948 0.472874 0.449851 0.0552802) 163 339 1
(0.132725 0.375994 0.449767 0.0415144) 183 375 1
(0.132713 0.417514 0.389837 0.0599356) 203 414 2
(0.132846 0.238644 0.449706 0.178804) 203 414 1
(0.132878 0.417432 0.25256 0.19713) 223 453 2
(0.132958 0.101322 0.44965 0.31607) 223 453 1
(0.132951 0.417395 0.115309 0.334345) 243 492 2
(0.0611152 0.453313 0.449597 0.0359745) 243 495 1
(0.132997 0.395425 0.44963 0.0219471) 263 531 1
(0.133104 0.417319 0.409421 0.0401563) 283 570 2
(0.133104 0.258112 0.449577 0.159207) 283 570 1
(0.133144 0.417299 0.272165 0.177392) 303 609 2
(0.133175 0.12084 0.449541 0.296444) 303 609 1
(0.133144 0.417299 0.13495 0.314607) 323 648 2
(0.10055 0.433596 0.449587 0.0162668) 323 651 1
(0.133143 0.415058 0.449557 0.00224107) 343 687 1
(0.133158 0.417292 0.429086 0.0204638) 363 726 2
(0.133183 0.277678 0.449538 0.139602) 363 726 1
(0.133179 0.417281 0.291765 0.157774) 383 765 2
(0.133154 0.140354 0.449552 0.276939) 383 765 1
(0.133158 0.417292 0.154313 0.295237) 403 804 2
(0.133173 0.00295355 0.449543 0.414331) 403 804 1
(0.13321 0.417266 0.0169306 0.432593) 423 843 2
(0.133244 0.417249 0.448278 0.00122888) 443 882 2
(0.133181 0.296922 0.449538 0.120359) 443 882 1
(0.133225 0.417259 0.311011 0.138506) 463 921 2
(0.133188 0.159638 0.449535 0.257639) 463 921 1
(0.133244 0.417249 0.173714 0.275793) 483 960 2
(0.133211 0.0223275 0.449524 0.394938) 483 960 1
(0.13323 0.417256 0.0364021 0.413112) 503 999 2
(0.0967817 0.43548 0.018212 0.449526) 523 1002 1
(0.133258 0.31632 0.4495 0.100922) 523 1038 1
(0.133177 0.417282 0.330448 0.119092) 543 1077 2
(0.133273 0.179017 0.449493 0.238218) 543 1077 1
(0.133217 0.417262 0.193125 0.256395) 563 1116 2
(0.133115 0.0417688 0.449571 0.375545) 563 1116 1
(0.133272 0.417235 0.0557696 0.393723) 583 1155 2
(0.0581095 0.454816 0.0375237 0.449551) 603 1158 1
(0.133285 0.335619 0.449486 0.0816091) 603 1194 1
(0.133237 0.417253 0.349745 0.099766) 623 1233 2
(0.133293 0.198308 0.449483 0.218917) 623 1233 1
(0.133264 0.417239 0.212419 0.237078) 643 1272 2
(0.133173 0.0610232 0.449542 0.356261) 643 1272 1
(0.133314 0.417214 0.0750918 0.374381) 663 1311 2
(0.019395 0.474173 0.0569582 0.449473) 683 1314 1
(0.133252 0.354982 0.449503 0.0622631) 683 1350 1
(0.133255 0.417244 0.369119 0.0803823) 703 1389 2
(0.133296 0.217645 0.449481 0.199578) 703 1389 1
(0.133327 0.417207 0.231722 0.217744) 723 1428 2
(0.133323 0.0800654 0.449467 0.337144) 723 1428 1
(0.13332 0.417211 0.0940132 0.355456) 743 1467 2
(0.0180356 0.474853 0.449472 0.0576391) 743 1470 1
(0.133295 0.373506 0.449482 0.0437175) 763 1506 1
(0.253777 0.356982 0.050828 0.338412) 922 1796 2
(0.207291 0.11483 0.265396 0.412484) 942 1799 2
(0.34435 0.311696 0.17348 0.170474) 943 11 2
(0.902815 0.0324637 0.014852 0.0498698) 3 11 2
(0.0506758 0.458533 0.439825 0.0509665) 23 10 1
(0.812145 0.0777985 0.0515256 0.0585309) 23 66 1
(0.326444 0.320649 0.301963 0.0509437) 43 66 1
(0.536158 0.215792 0.0493465 0.198704) 43 105 1
(0.601705 0.183018 0.16679 0.0484862) 63 105 1
(0.261057 0.353342 0.0495752 0.336025) 63 144 1
(0.876169 0.0457866 0.0278344 0.0502102) 83 144 1
(0.0133929 0.477175 0.459216 0.0502169) 103 183 1
(0.849399 0.0591715 0.0497614 0.0416681) 103 222 1
(0.287819 0.339962 0.322315 0.0499046) 123 222 1
(0.574996 0.196373 0.0498064 0.178825) 123 261 1
(0.562207 0.202767 0.185236 0.0497897) 143 261 1
(0.30059 0.333576 0.049827 0.316007) 143 300 1
(0.836621 0.0655607 0.0479647 0.049854) 163 300 1
(0.0261661 0.470788 0.0497775 0.453268) 163 339 1
(0.888935 0.0394037 0.0497728 0.0218889) 183 378 1
(0.248316 0.359713 0.342287 0.0496841) 203 378 1
(0.614438 0.176652 0.049673 0.159237) 203 417 1
(0.522826 0.222458 0.205051 0.0496643) 223 417 1
(0.339932 0.313905 0.0496381 0.296525) 223 456 1
(0.797333 0.0852043 0.0678498 0.0496126) 243 456 1
(0.0654169 0.451163 0.049594 0.433827) 243 495 1
(0.928171 0.0197856 0.0495907 0.00245303) 263 534 1
(0.209116 0.379313 0.362002 0.0495694) 283 534 1
(0.653569 0.157086 0.0495383 0.139806) 283 573 1
(0.483733 0.242004 0.224718 0.0495439) 303 573 1
(0.378973 0.294385 0.0495282 0.277114) 303 612 1
(0.758332 0.104705 0.0874349 0.0495284) 323 612 1
(0.104332 0.431705 0.0495496 0.414414) 323 651 1
(0.933176 0.0169067 0.049541 0.000376165) 343 687 1
(0.170293 0.398724 0.381455 0.049528) 363 690 1
(0.692417 0.137662 0.0495305 0.12039) 363 729 1
(0.444876 0.261433 0.244161 0.0495294) 383 729 1
(0.417833 0.274954 0.0495529 0.25766) 383 768 1
(0.719457 0.124143 0.106858 0.0495423) 403 768 1
(0.143255 0.412244 0.0495408 0.394961) 403 807 1
(0.933211 0.0172653 0.019119 0.0304044) 423 843 2
(0.131297 0.418223 0.400973 0.0495073) 443 846 1
(0.731435 0.118153 0.0495276 0.100884) 443 885 1
(0.405839 0.280952 0.263702 0.0495078) 463 885 1
(0.456889 0.255426 0.0495265 0.238158) 463 924 1
(0.680378 0.143682 0.12643 0.0495098) 483 924 1
(0.182356 0.392693 0.0494986 0.375453) 483 963 1
(0.933224 0.017259 0.0386747 0.0108424) 503 999 2
(0.0921719 0.437785 0.420543 0.0495003) 523 1002 1
(0.770565 0.0985886 0.0494997 0.0813469) 523 1041 1
(0.366696 0.300523 0.283302 0.0494792) 543 1041 1
(0.496044 0.235849 0.0494949 0.218612) 543 1080 1
(0.641219 0.163261 0.146019 0.0495) 563 1080 1
(0.221511 0.373115 0.049558 0.355815) 563 1119 1
(0.915769 0.0259867 0.00874973 0.049495) 583 1119 1
(0.0530583 0.457342 0.440079 0.049521) 603 1158 1
(0.809644 0.0790491 0.0494825 0.0618247) 603 1197 1
(0.327652 0.320045 0.302832 0.0494708) 623 1197 1
(0.535121 0.21631 0.0494865 0.199082) 623 1236 1
(0.60213 0.182806 0.165593 0.049471) 643 1236 1
(0.260582 0.35358 0.0495093 0.336329) 643 1275 1
(0.876702 0.04552 0.0283079 0.0494702) 663 1275 1
(0.0139523 0.476895 0.459696 0.0494571) 683 1314 1
(0.848801 0.0594705 0.0494964 0.0422322) 683 1353 1
(0.288441 0.339651 0.322412 0.0494963) 703 1353 1
(0.574331 0.196706 0.0494736 0.17949) 703 1392 1
(0.56292 0.202411 0.1852 0.0494694) 723 1392 1
(0.299704 0.334019 0.0494713 0.316806) 723 1431 1
(0.837835 0.0649534 0.0477431 0.0494683) 743 1431 1
(0.024514 0.471614 0.0494714 0.454401) 743 1470 1
(0.886543 0.0405994 0.0494687 0.0233887) 763 1509 1
(0.446716 0.132132 0.128381 0.292771) 922 1798 1
(0.52483 0.221456 0.0769199 0.176794) 943 1801 1
(0.238806 0.101598 0.396726 0.26287) 943 11 1
(0.267534 0.350104 0.326755 0.0556073) 3 9 2
(0.0583201 0.105832 0.348879 0.486969) 23 10 2
(0.270965 0.266614 0.0817741 0.380646) 23 65 1
(0.269799 0.348972 0.0316277 0.349602) 43 104 2
(0.266478 0.131543 0.219089 0.38289) 43 104 1
(0.264817 0.351462 0.171436 0.212285) 63 143 2
(0.255071 0.0058818 0.388593 0.350454) 63 144 2
(0.267793 0.349975 0.307199 0.0750333) 83 182 2
(0.0194373 0.124174 0.349979 0.50641) 103 183 2
(0.267202 0.288062 0.0622084 0.382528) 103 221 1
(0.267351 0.350196 0.0132756 0.369178) 123 260 2
(0.267289 0.150801 0.199425 0.382485) 123 260 1
(0.267302 0.35022 0.150495 0.231984) 143 299 2
(0.26741 0.0135512 0.336615 0.382424) 143 299 1
(0.267298 0.350222 0.287718 0.0947622) 163 338 2
(0.0200066 0.123659 0.506126 0.350208) 163 339 2
(0.267167 0.3078 0.0424872 0.382545) 183 377 1
(0.254465 0.00632564 0.350313 0.388897) 203 378 2
(0.267014 0.170647 0.179718 0.382622) 203 416 1
(0.267066 0.350338 0.130926 0.25167) 223 455 2
(0.267023 0.0334208 0.316938 0.382617) 223 455 1
(0.26696 0.350391 0.268189 0.11446) 243 494 2
(0.0594773 0.103712 0.48639 0.350421) 243 495 2
(0.266923 0.327683 0.0227264 0.382668) 263 533 1
(0.214922 0.0259727 0.350437 0.408668) 283 534 2
(0.26681 0.190521 0.159945 0.382724) 283 572 1
(0.266824 0.350459 0.111276 0.271441) 303 611 2
(0.266789 0.0533079 0.297169 0.382735) 303 611 1
(0.266787 0.350477 0.24851 0.134225) 323 650 2
(0.0989876 0.0839138 0.466635 0.350463) 323 651 2
(0.266823 0.347482 0.00297784 0.382718) 343 689 1
(0.175407 0.0456961 0.350472 0.428426) 363 690 2
(0.266805 0.21031 0.140159 0.382726) 363 728 1
(0.266798 0.350472 0.0914732 0.291257) 383 767 2
(0.266777 0.0731324 0.27735 0.38274) 383 767 1
(0.266823 0.350459 0.228689 0.154028) 403 806 2
(0.138551 0.0641179 0.446853 0.350477) 403 807 2
(0.26679 0.350476 0.36595 0.0167835) 423 845 2
(0.135928 0.0654096 0.350498 0.448165) 443 846 2
(0.266716 0.230061 0.120452 0.382771) 443 884 1
(0.266738 0.350502 0.0718279 0.310932) 463 923 2
(0.266737 0.0928197 0.257683 0.382761) 463 923 1
(0.266762 0.35049 0.209046 0.173702) 483 962 2
(0.177916 0.0444123 0.427171 0.350501) 483 963 2
(0.266708 0.350517 0.346302 0.0364734) 503 1001 2
(0.0965347 0.0851035 0.3505 0.467862) 523 1002 2
(0.26674 0.249749 0.100751 0.382759) 523 1040 1
(0.266691 0.350525 0.052153 0.330631) 543 1079 2
(0.266694 0.112531 0.237993 0.382782) 543 1079 1
(0.266713 0.350515 0.189391 0.193382) 563 1118 2
(0.217255 0.0247294 0.407502 0.350514) 563 1119 2
(0.266733 0.350504 0.326632 0.0561308) 583 1157 2
(0.0572585 0.104715 0.350526 0.4875) 603 1158 2
(0.266684 0.269393 0.0811362 0.382787) 603 1196 1
(0.266679 0.350532 0.032565 0.350225) 623 1235 2
(0.266705 0.132097 0.218421 0.382776) 623 1235 1
(0.266688 0.350527 0.169868 0.212917) 643 1274 2
(0.256207 0.00524881 0.388025 0.350519) 643 1275 2
(0.266678 0.350532 0.30727 0.0755206) 663 1313 2
(0.0187077 0.123977 0.350541 0.506775) 683 1314 2
(0.266713 0.28852 0.0619942 0.382772) 683 1352 1
(0.26671 0.350516 0.0135222 0.369252) 703 1391 2
(0.266688 0.151116 0.199411 0.382785) 703 1391 1
(0.266678 0.350532 0.150851 0.231939) 723 1430 2
(0.266679 0.013822 0.336709 0.38279) 723 1430 1
(0.266675 0.350533 0.288165 0.0946262) 743 1469 2
(0.019629 0.123527 0.506315 0.35053) 743 1470 2
(0.266676 0.307729 0.0428043 0.382791) 763 1508 1